; Created by cgenff_charmm2gmx.py

[ moleculetype ]
; Name			   nrexcl
CHT				 3

[ atoms ]
;	 nr		  type	resnr residue  atom   cgnr	   charge		mass  typeB    chargeB		massB
; residue	 1 CHT rtp CHT q	qsum
     1      CG321      1    CHT     C1      1      0.052     12.011   ;
     2      CG324      1    CHT     C2      2     -0.102     12.011   ;
     3      CG334      1    CHT     C3      3     -0.350     12.011   ;
     4      CG334      1    CHT     C4      4     -0.350     12.011   ;
     5      CG334      1    CHT     C5      5     -0.350     12.011   ;
     6      OG311      1    CHT     O1      6     -0.650     15.999   ;
     7      NG3P0      1    CHT     N1      7     -0.599     14.007   ;
     8       HGA2      1    CHT     H1      8      0.090      1.008   ;
     9       HGA2      1    CHT     H2      9      0.090      1.008   ;
    10       HGP5      1    CHT     H3     10      0.250      1.008   ;
    11       HGP5      1    CHT     H4     11      0.250      1.008   ;
    12       HGP5      1    CHT     H5     12      0.250      1.008   ;
    13       HGP5      1    CHT     H6     13      0.250      1.008   ;
    14       HGP5      1    CHT     H7     14      0.250      1.008   ;
    15       HGP5      1    CHT     H8     15      0.250      1.008   ;
    16       HGP5      1    CHT     H9     16      0.250      1.008   ;
    17       HGP5      1    CHT    H10     17      0.250      1.008   ;
    18       HGP5      1    CHT    H11     18      0.250      1.008   ;
    19       HGP5      1    CHT    H12     19      0.250      1.008   ;
    20       HGP5      1    CHT    H13     20      0.250      1.008   ;
    21       HGP1      1    CHT    H14     21      0.419      1.008   ;

[ bonds ]
;	ai	  aj funct			  c0			c1			  c2			c3
    1     2	 1 ;       CG321      CG324
    1     6	 1 ;       CG321      OG311
    1     8	 1 ;       CG321       HGA2
    1     9	 1 ;       CG321       HGA2
    2     7	 1 ;       CG324      NG3P0
    2    10	 1 ;       CG324       HGP5
    2    11	 1 ;       CG324       HGP5
    3     7	 1 ;       CG334      NG3P0
    3    12	 1 ;       CG334       HGP5
    3    13	 1 ;       CG334       HGP5
    3    14	 1 ;       CG334       HGP5
    4     7	 1 ;       CG334      NG3P0
    4    15	 1 ;       CG334       HGP5
    4    16	 1 ;       CG334       HGP5
    4    17	 1 ;       CG334       HGP5
    5     7	 1 ;       CG334      NG3P0
    5    18	 1 ;       CG334       HGP5
    5    19	 1 ;       CG334       HGP5
    5    20	 1 ;       CG334       HGP5
    6    21	 1 ;       OG311       HGP1

[ pairs ]
;	ai	  aj funct			  c0			c1			  c2			c3
    1     3	 1
    1     4	 1
    1     5	 1
    2    21	 1
    2    12	 1
    2    13	 1
    2    14	 1
    2    15	 1
    2    16	 1
    2    17	 1
    2    18	 1
    2    19	 1
    2    20	 1
    3    10	 1
    3    11	 1
    3    15	 1
    3    16	 1
    3    17	 1
    3    18	 1
    3    19	 1
    3    20	 1
    4    10	 1
    4    11	 1
    4    12	 1
    4    13	 1
    4    14	 1
    4    18	 1
    4    19	 1
    4    20	 1
    5    10	 1
    5    11	 1
    5    12	 1
    5    13	 1
    5    14	 1
    5    15	 1
    5    16	 1
    5    17	 1
    6     7	 1
    6    10	 1
    6    11	 1
    7     8	 1
    7     9	 1
    8    10	 1
    8    11	 1
    8    21	 1
    9    10	 1
    9    11	 1
    9    21	 1

[ angles ]
;	ai	  aj	ak funct			c0			  c1			c2			  c3
    2     1     6	5 ;      CG324      CG321      OG311
    2     1     8	5 ;      CG324      CG321       HGA2
    2     1     9	5 ;      CG324      CG321       HGA2
    6     1     8	5 ;      OG311      CG321       HGA2
    6     1     9	5 ;      OG311      CG321       HGA2
    8     1     9	5 ;       HGA2      CG321       HGA2
    1     2     7	5 ;      CG321      CG324      NG3P0
    1     2    10	5 ;      CG321      CG324       HGP5
    1     2    11	5 ;      CG321      CG324       HGP5
    7     2    10	5 ;      NG3P0      CG324       HGP5
    7     2    11	5 ;      NG3P0      CG324       HGP5
   10     2    11	5 ;       HGP5      CG324       HGP5
    7     3    12	5 ;      NG3P0      CG334       HGP5
    7     3    13	5 ;      NG3P0      CG334       HGP5
    7     3    14	5 ;      NG3P0      CG334       HGP5
   12     3    13	5 ;       HGP5      CG334       HGP5
   12     3    14	5 ;       HGP5      CG334       HGP5
   13     3    14	5 ;       HGP5      CG334       HGP5
    7     4    15	5 ;      NG3P0      CG334       HGP5
    7     4    16	5 ;      NG3P0      CG334       HGP5
    7     4    17	5 ;      NG3P0      CG334       HGP5
   15     4    16	5 ;       HGP5      CG334       HGP5
   15     4    17	5 ;       HGP5      CG334       HGP5
   16     4    17	5 ;       HGP5      CG334       HGP5
    7     5    18	5 ;      NG3P0      CG334       HGP5
    7     5    19	5 ;      NG3P0      CG334       HGP5
    7     5    20	5 ;      NG3P0      CG334       HGP5
   18     5    19	5 ;       HGP5      CG334       HGP5
   18     5    20	5 ;       HGP5      CG334       HGP5
   19     5    20	5 ;       HGP5      CG334       HGP5
    1     6    21	5 ;      CG321      OG311       HGP1
    2     7     3	5 ;      CG324      NG3P0      CG334
    2     7     4	5 ;      CG324      NG3P0      CG334
    2     7     5	5 ;      CG324      NG3P0      CG334
    3     7     4	5 ;      CG334      NG3P0      CG334
    3     7     5	5 ;      CG334      NG3P0      CG334
    4     7     5	5 ;      CG334      NG3P0      CG334

[ dihedrals ]
;	ai	  aj	ak	  al funct			  c0			c1			  c2			c3			  c4			c5
    6     1     2     7	 9 ;      OG311      CG321      CG324      NG3P0
    6     1     2    10	 9 ;      OG311      CG321      CG324       HGP5
    6     1     2    11	 9 ;      OG311      CG321      CG324       HGP5
    8     1     2     7	 9 ;       HGA2      CG321      CG324      NG3P0
    8     1     2    10	 9 ;       HGA2      CG321      CG324       HGP5
    8     1     2    11	 9 ;       HGA2      CG321      CG324       HGP5
    9     1     2     7	 9 ;       HGA2      CG321      CG324      NG3P0
    9     1     2    10	 9 ;       HGA2      CG321      CG324       HGP5
    9     1     2    11	 9 ;       HGA2      CG321      CG324       HGP5
    2     1     6    21	 9 ;      CG324      CG321      OG311       HGP1
    8     1     6    21	 9 ;       HGA2      CG321      OG311       HGP1
    9     1     6    21	 9 ;       HGA2      CG321      OG311       HGP1
    1     2     7     3	 9 ;      CG321      CG324      NG3P0      CG334
    1     2     7     4	 9 ;      CG321      CG324      NG3P0      CG334
    1     2     7     5	 9 ;      CG321      CG324      NG3P0      CG334
   10     2     7     3	 9 ;       HGP5      CG324      NG3P0      CG334
   10     2     7     4	 9 ;       HGP5      CG324      NG3P0      CG334
   10     2     7     5	 9 ;       HGP5      CG324      NG3P0      CG334
   11     2     7     3	 9 ;       HGP5      CG324      NG3P0      CG334
   11     2     7     4	 9 ;       HGP5      CG324      NG3P0      CG334
   11     2     7     5	 9 ;       HGP5      CG324      NG3P0      CG334
   12     3     7     2	 9 ;       HGP5      CG334      NG3P0      CG324
   12     3     7     4	 9 ;       HGP5      CG334      NG3P0      CG334
   12     3     7     5	 9 ;       HGP5      CG334      NG3P0      CG334
   13     3     7     2	 9 ;       HGP5      CG334      NG3P0      CG324
   13     3     7     4	 9 ;       HGP5      CG334      NG3P0      CG334
   13     3     7     5	 9 ;       HGP5      CG334      NG3P0      CG334
   14     3     7     2	 9 ;       HGP5      CG334      NG3P0      CG324
   14     3     7     4	 9 ;       HGP5      CG334      NG3P0      CG334
   14     3     7     5	 9 ;       HGP5      CG334      NG3P0      CG334
   15     4     7     2	 9 ;       HGP5      CG334      NG3P0      CG324
   15     4     7     3	 9 ;       HGP5      CG334      NG3P0      CG334
   15     4     7     5	 9 ;       HGP5      CG334      NG3P0      CG334
   16     4     7     2	 9 ;       HGP5      CG334      NG3P0      CG324
   16     4     7     3	 9 ;       HGP5      CG334      NG3P0      CG334
   16     4     7     5	 9 ;       HGP5      CG334      NG3P0      CG334
   17     4     7     2	 9 ;       HGP5      CG334      NG3P0      CG324
   17     4     7     3	 9 ;       HGP5      CG334      NG3P0      CG334
   17     4     7     5	 9 ;       HGP5      CG334      NG3P0      CG334
   18     5     7     2	 9 ;       HGP5      CG334      NG3P0      CG324
   18     5     7     3	 9 ;       HGP5      CG334      NG3P0      CG334
   18     5     7     4	 9 ;       HGP5      CG334      NG3P0      CG334
   19     5     7     2	 9 ;       HGP5      CG334      NG3P0      CG324
   19     5     7     3	 9 ;       HGP5      CG334      NG3P0      CG334
   19     5     7     4	 9 ;       HGP5      CG334      NG3P0      CG334
   20     5     7     2	 9 ;       HGP5      CG334      NG3P0      CG324
   20     5     7     3	 9 ;       HGP5      CG334      NG3P0      CG334
   20     5     7     4	 9 ;       HGP5      CG334      NG3P0      CG334

